/*--------------------------------*- C++ -*----------------------------------*\
| =========                 |                                                 |
| \\      /  F ield         | OpenFOAM: The Open Source CFD Toolbox           |
|  \\    /   O peration     | Version:  2306                                  |
|   \\  /    A nd           | Website:  www.openfoam.com                      |
|    \\/     M anipulation  |                                                 |
\*---------------------------------------------------------------------------*/
FoamFile
{
    version     2.0;
    format      ascii;
    arch        "LSB;label=32;scalar=64";
    class       volVectorField;
    location    "0";
    object      grad(T);
}
// * * * * * * * * * * * * * * * * * * * * * * * * * * * * * * * * * * * * * //

dimensions      [0 -1 0 1 0 0 0];

internalField   nonuniform List<vector> 
60000
(
(1.85357e-12 3.70715e-12 0)
(0 0 0)
(7.35889e-13 0 0)
(1.38688e-12 0 0)
(6.73756e-13 -5.39005e-12 -2.69502e-12)
(-5.05317e-13 0 0)
(-1.38688e-12 0 0)
(-7.35889e-13 -2.94356e-12 0)
(0 3.2341e-12 1.61705e-12)
(-3.70715e-12 3.70715e-12 3.70715e-12)
(3.2341e-12 1.61705e-12 0)
(-5.79151e-12 0 0)
(-2.34388e-12 0 0)
(3.18559e-13 0 -2.54847e-12)
(3.4976e-12 0 0)
(-3.4976e-12 0 -2.48718e-12)
(-3.18559e-13 0 0)
(-3.3484e-13 -5.35745e-12 0)
(5.79151e-12 -5.79151e-12 0)
(-3.2341e-12 1.61705e-12 1.61705e-12)
(-2.94356e-12 7.35889e-13 0)
(-2.00904e-12 0 0)
(9.39023e-13 0 0)
(3.14657e-12 0 0)
(-3.77672e-12 -4.6934e-12 0)
(3.77672e-12 0 0)
(-3.14657e-12 0 0)
(-3.44308e-12 0 2.50406e-12)
(2.00904e-12 0 0)
(0 7.35889e-13 0)
(-2.77377e-12 1.38688e-12 0)
(-2.38919e-12 0 2.54847e-12)
(0 0 0)
(6.1203e-12 0 0)
(-1.44751e-12 4.51906e-12 0)
(1.44751e-12 0 -2.25953e-12)
(-6.1203e-12 4.60822e-12 0)
(0 0 0)
(-1.5928e-13 0 0)
(2.77377e-12 1.38688e-12 -2.77377e-12)
(0 1.68439e-13 2.69502e-12)
(-2.89525e-12 4.97437e-12 -2.48718e-12)
(-1.38752e-12 0 0)
(1.77104e-12 4.51906e-12 0)
(-2.05119e-12 0 0)
(2.38429e-12 -4.43548e-12 0)
(-2.08984e-12 0 0)
(8.13584e-13 0 0)
(2.67537e-12 4.97437e-12 -2.48718e-12)
(2.69502e-12 3.36878e-13 0)
(-2.69502e-12 -1.68439e-13 -2.69502e-12)
(-2.64263e-12 -4.97437e-12 -2.48718e-12)
(4.6934e-12 0 0)
(-1.48282e-12 -4.51906e-12 0)
(-3.01474e-12 4.43548e-12 0)
(-1.42074e-12 0 -2.21774e-12)
(1.48282e-12 0 -2.25953e-12)
(0 0 2.3467e-12)
(-7.3061e-12 -4.97437e-12 -7.46155e-12)
(2.69502e-12 -1.68439e-13 0)
(0 -1.38688e-12 0)
(-6.37118e-13 0 0)
(-8.99019e-13 0 0)
(1.58408e-12 0 0)
(3.63643e-12 -4.51906e-12 0)
(-3.63643e-12 0 0)
(-1.58408e-12 -4.60822e-12 0)
(8.99019e-13 0 0)
(-1.91135e-12 0 0)
(0 -1.38688e-12 0)
(-2.94356e-12 -3.67944e-12 0)
(-2.67872e-12 0 0)
(2.19105e-12 -5.00812e-12 -2.50406e-12)
(-2.99673e-13 0 0)
(1.39335e-12 0 0)
(-1.39335e-12 0 0)
(2.99673e-13 0 0)
(-2.19105e-12 0 0)
(0 -5.35745e-12 0)
(5.88711e-12 -3.67944e-12 0)
(0 -1.61705e-12 -1.61705e-12)
(-1.44788e-12 2.89576e-12 0)
(5.35745e-12 2.67872e-12 0)
(-5.09695e-12 0 0)
(4.74119e-12 0 4.97437e-12)
(-4.74119e-12 4.97437e-12 0)
(5.09695e-12 0 0)
(-8.03617e-12 0 0)
(1.44788e-12 5.79151e-12 0)
(3.2341e-12 -1.61705e-12 3.2341e-12)
(3.70715e-12 -1.85357e-12 -3.70715e-12)
(-4.85115e-12 -3.2341e-12 -1.61705e-12)
(7.35889e-13 2.94356e-12 0)
(1.38688e-12 2.77377e-12 2.77377e-12)
(1.68439e-13 2.69502e-12 0)
(-1.68439e-13 2.69502e-12 2.69502e-12)
(-1.38688e-12 0 0)
(-3.67944e-12 2.94356e-12 0)
(1.61705e-12 -6.4682e-12 -3.2341e-12)
(-1.85357e-12 -3.70715e-12 0)
(1.85357e-12 7.4143e-12 0)
(0 6.4682e-12 0)
(1.47178e-12 0 0)
(1.38688e-12 0 0)
(5.05317e-13 -8.08507e-12 2.69502e-12)
(-5.05317e-13 0 4.60575e-14)
(-1.38688e-12 0 0)
(-1.47178e-12 -2.94356e-12 0)
(0 3.2341e-12 0)
(-5.56072e-12 7.4143e-12 0)
(0 -4.85115e-12 0)
(-5.79151e-12 -5.79151e-12 0)
(-2.34388e-12 5.35745e-12 0)
(6.37118e-13 0 0)
(-1.47677e-12 4.97437e-12 0)
(1.47677e-12 -4.97437e-12 -2.48718e-12)
(-6.37118e-13 0 0)
(-3.3484e-13 0 0)
(5.79151e-12 -5.79151e-12 0)
(-6.4682e-12 -4.85115e-12 0)
(-2.94356e-12 5.88711e-12 0)
(3.3484e-12 0 0)
(-4.0691e-12 -5.00812e-12 0)
(3.14657e-12 0 0)
(-3.77672e-12 -4.6934e-12 0)
(3.77672e-12 0 2.3467e-12)
(-3.14657e-12 0 0)
(1.56504e-12 -5.00812e-12 0)
(-3.3484e-12 0 0)
(0 6.623e-12 0)
(-2.77377e-12 -3.81393e-12 0)
(-2.38919e-12 0 0)
(4.94461e-12 4.79477e-12 0)
(1.44007e-12 4.60822e-12 0)
(-1.44751e-12 4.51906e-12 0)
(1.44751e-12 4.51906e-12 0)
(-1.44007e-12 4.60822e-12 0)
(-4.94461e-12 0 0)
(-1.5928e-13 0 0)
(2.77377e-12 -4.16065e-12 0)
(-2.69502e-12 1.68439e-13 -2.64897e-12)
(-3.24907e-12 4.97437e-12 -2.48718e-12)
(-1.27095e-12 -4.6934e-12 -2.3467e-12)
(1.76083e-12 -4.51906e-12 2.25953e-12)
(-2.05119e-12 4.43548e-12 0)
(2.38429e-12 -4.43548e-12 0)
(-2.08984e-12 0 0)
(9.19564e-13 0 0)
(2.31874e-12 4.97437e-12 0)
(2.69502e-12 1.68439e-13 2.69502e-12)
(-2.69502e-12 -1.68439e-13 0)
(2.33173e-12 -4.97437e-12 2.48718e-12)
(-4.84007e-12 4.6934e-12 0)
(3.10685e-12 4.51906e-12 0)
(-3.01474e-12 0 0)
(-1.42074e-12 -4.43548e-12 0)
(-3.10685e-12 0 0)
(4.84007e-12 0 0)
(-2.33173e-12 -4.97437e-12 0)
(2.69502e-12 -1.68439e-13 4.60575e-14)
(0 3.81393e-12 0)
(-6.37118e-13 0 0)
(-8.99019e-13 -4.79477e-12 0)
(6.1923e-12 -4.60822e-12 0)
(-8.82628e-13 0 0)
(8.82628e-13 0 0)
(-6.1923e-12 -4.60822e-12 0)
(8.99019e-13 0 0)
(-1.91135e-12 0 0)
(0 4.16065e-12 0)
(-5.88711e-12 -2.94356e-12 0)
(2.67872e-12 0 0)
(-2.81707e-12 0 0)
(-5.99346e-13 0 0)
(1.39335e-12 -4.6934e-12 0)
(-1.39335e-12 0 0)
(5.99346e-13 0 0)
(2.81707e-12 5.00812e-12 0)
(-5.35745e-12 -5.35745e-12 0)
(5.88711e-12 -3.67944e-12 0)
(0 1.61705e-12 0)
(-1.44788e-12 5.79151e-12 0)
(-6.69681e-13 -2.67872e-12 0)
(0 0 0)
(-2.33173e-13 4.97437e-12 -4.97437e-12)
(2.33173e-13 0 0)
(0 5.09695e-12 0)
(-2.00904e-12 -5.35745e-12 0)
(1.44788e-12 5.79151e-12 0)
(0 1.61705e-12 0)
(3.70715e-12 -1.85357e-12 0)
(-4.85115e-12 0 0)
(0 2.94356e-12 0)
(1.7336e-12 2.77377e-12 0)
(1.68439e-13 0 4.60575e-14)
(-1.68439e-13 2.69502e-12 0)
(-1.7336e-12 0 0)
(-2.94356e-12 5.88711e-12 0)
(1.61705e-12 -6.4682e-12 0)
(-5.56072e-12 -3.70715e-12 0)
(3.70715e-12 0 0)
(-4.85115e-12 3.2341e-12 0)
(7.35889e-13 -2.94356e-12 0)
(1.04016e-12 -2.77377e-12 0)
(3.36878e-13 0 -2.69502e-12)
(-3.36878e-13 -2.69502e-12 4.60575e-14)
(-1.38688e-12 -2.77377e-12 0)
(-7.35889e-13 -2.94356e-12 0)
(4.85115e-12 6.4682e-12 0)
(0 0 0)
(6.4682e-12 3.2341e-12 0)
(-6.51545e-12 -5.79151e-12 0)
(8.03617e-12 0 0)
(-4.77839e-12 -5.09695e-12 0)
(-1.63221e-12 0 0)
(1.55449e-12 4.97437e-12 2.48718e-12)
(4.77839e-12 0 0)
(-5.35745e-12 0 0)
(3.6197e-12 0 0)
(-3.2341e-12 1.61705e-12 0)
(-2.94356e-12 -4.41533e-12 0)
(3.01356e-12 1.07149e-11 0)
(6.26015e-13 0 0)
(-1.79804e-12 0 0)
(8.06678e-13 0 0)
(-8.06678e-13 0 -2.3467e-12)
(1.79804e-12 4.79477e-12 0)
(1.87805e-12 5.00812e-12 0)
(-3.3484e-13 5.35745e-12 0)
(2.94356e-12 -4.41533e-12 0)
(-2.77377e-12 2.08032e-12 0)
(-2.70775e-12 -5.09695e-12 0)
(-1.49837e-13 0 0)
(-3.16815e-12 -4.60822e-12 0)
(7.57295e-12 4.51906e-12 0)
(-7.57295e-12 -4.51906e-12 0)
(3.16815e-12 0 0)
(1.49837e-13 0 0)
(1.5928e-13 -5.09695e-12 0)
(2.77377e-12 1.7336e-12 0)
(-2.69502e-12 3.36878e-13 2.74108e-12)
(1.36165e-12 0 2.48718e-12)
(3.52843e-12 0 2.3467e-12)
(-2.75312e-12 9.03811e-12 -2.25953e-12)
(-2.05119e-12 -4.43548e-12 0)
(2.38429e-12 -4.43548e-12 0)
(-2.08984e-12 0 0)
(3.52572e-13 0 0)
(-2.29759e-12 0 2.48718e-12)
(0 3.36878e-13 0)
(0 -3.36878e-13 0)
(2.64263e-12 0 -2.48718e-12)
(1.46669e-13 0 0)
(-1.4122e-12 -9.03811e-12 0)
(-2.99741e-12 4.43548e-12 0)
(-1.43807e-12 4.43548e-12 0)
(1.4122e-12 0 0)
(-4.84007e-12 0 0)
(2.33173e-12 0 0)
(0 -3.36878e-13 4.60575e-14)
(5.54753e-12 -2.08032e-12 0)
(-5.4155e-12 5.09695e-12 0)
(-5.99346e-13 0 0)
(6.33631e-12 4.60822e-12 0)
(-5.29577e-12 0 0)
(5.29577e-12 -4.51906e-12 0)
(-6.33631e-12 0 0)
(5.99346e-13 0 0)
(7.96398e-12 5.09695e-12 0)
(-5.54753e-12 -1.7336e-12 0)
(0 7.35889e-12 0)
(6.69681e-13 -5.35745e-12 0)
(-2.50406e-12 -5.00812e-12 0)
(-2.99673e-13 0 0)
(1.54002e-12 0 0)
(-1.46669e-12 0 0)
(2.99673e-13 -4.79477e-12 0)
(2.50406e-12 0 0)
(-3.3484e-12 -1.07149e-11 0)
(0 7.35889e-12 0)
(3.2341e-12 -6.4682e-12 0)
(2.17182e-12 2.89576e-12 0)
(-4.68777e-12 2.67872e-12 0)
(6.37118e-13 0 0)
(-7.77245e-14 -4.97437e-12 0)
(7.77245e-14 4.97437e-12 0)
(-3.18559e-13 0 0)
(7.36649e-12 0 0)
(-2.17182e-12 2.89576e-12 0)
(-3.2341e-12 -4.85115e-12 0)
(3.70715e-12 -3.70715e-12 0)
(-3.2341e-12 -3.2341e-12 0)
(1.47178e-12 2.94356e-12 0)
(2.08032e-12 2.77377e-12 0)
(3.36878e-13 0 4.60575e-14)
(-3.36878e-13 0 0)
(-2.08032e-12 0 0)
(1.47178e-12 5.88711e-12 0)
(0 0 0)
(0 -3.70715e-12 0)
(-5.56072e-12 -7.4143e-12 0)
(3.2341e-12 0 0)
(7.35889e-13 2.94356e-12 0)
(-4.16065e-12 2.77377e-12 0)
(5.72693e-12 -2.69502e-12 2.69502e-12)
(-5.72693e-12 2.69502e-12 4.60575e-14)
(4.16065e-12 2.77377e-12 0)
(-7.35889e-13 0 0)
(-3.2341e-12 6.4682e-12 0)
(5.56072e-12 -7.4143e-12 0)
(3.2341e-12 3.2341e-12 0)
(7.23939e-13 0 0)
(-1.6742e-12 5.35745e-12 0)
(9.55677e-13 0 0)
(-1.39904e-12 4.97437e-12 0)
(1.39904e-12 -4.97437e-12 -2.48718e-12)
(-9.55677e-13 0 0)
(-1.00452e-12 0 0)
(2.17182e-12 0 0)
(-3.2341e-12 3.2341e-12 0)
(0 0 0)
(3.68324e-12 0 0)
(-3.75609e-12 -5.00812e-12 0)
(-1.49837e-12 0 0)
(9.53347e-13 -4.6934e-12 0)
(-9.53347e-13 0 0)
(1.49837e-12 0 0)
(1.25203e-12 -5.00812e-12 0)
(-3.68324e-12 0 0)
(-2.94356e-12 0 0)
(0 1.04016e-12 0)
(-2.22991e-12 0 0)
(1.49837e-13 0 0)
(1.58408e-12 0 0)
(-1.42986e-12 0 0)
(1.42986e-12 0 0)
(-1.58408e-12 0 0)
(-1.49837e-13 0 0)
(-3.18559e-13 0 0)
(0 1.04016e-12 0)
(2.69502e-12 0 -2.64897e-12)
(-3.24767e-12 0 -2.48718e-12)
(3.30587e-12 0 -2.3467e-12)
(-2.76332e-12 0 2.25953e-12)
(-2.05119e-12 4.43548e-12 0)
(-2.05119e-12 -4.43548e-12 0)
(2.42922e-12 0 0)
(1.19417e-13 0 0)
(3.03902e-12 0 0)
(-2.69502e-12 0 -2.69502e-12)
(-2.69502e-12 0 0)
(2.17629e-12 0 2.48718e-12)
(-1.46669e-13 0 0)
(2.96563e-12 0 0)
(-3.03207e-12 4.43548e-12 0)
(-1.40341e-12 0 0)
(1.55343e-12 0 0)
(-4.54673e-12 0 0)
(2.79808e-12 0 0)
(-5.39005e-12 0 4.60575e-14)
(2.77377e-12 -1.04016e-12 0)
(-9.55677e-13 0 0)
(-1.19869e-12 0 0)
(1.44007e-12 0 0)
(-9.17933e-13 0 0)
(9.17933e-13 0 0)
(-1.44007e-12 0 0)
(1.19869e-12 0 0)
(-1.5928e-12 0 0)
(-2.77377e-12 -1.04016e-12 0)
(0 -2.94356e-12 0)
(2.00904e-12 0 0)
(-3.44308e-12 0 0)
(-8.99019e-13 0 0)
(1.32002e-12 -4.6934e-12 -2.3467e-12)
(-1.32002e-12 0 -2.3467e-12)
(8.99019e-13 0 0)
(3.44308e-12 5.00812e-12 0)
(-4.68777e-12 0 0)
(2.94356e-12 -2.94356e-12 0)
(0 -3.2341e-12 0)
(7.23939e-13 0 0)
(-6.69681e-13 -2.67872e-12 0)
(-3.18559e-13 0 0)
(-3.10898e-13 4.97437e-12 0)
(3.10898e-13 4.97437e-12 0)
(3.18559e-13 0 0)
(-2.00904e-12 -5.35745e-12 0)
(-7.23939e-13 2.89576e-12 0)
(-3.2341e-12 -3.2341e-12 0)
(0 5.56072e-12 0)
(0 3.2341e-12 0)
(0 0 0)
(1.04016e-12 0 0)
(0 -5.39005e-12 4.60575e-14)
(0 -2.69502e-12 0)
(-1.04016e-12 -2.77377e-12 0)
(-2.94356e-12 0 0)
(0 0 0)
(-1.85357e-12 7.4143e-12 0)
(-7.4143e-12 0 0)
(-3.2341e-12 3.2341e-12 0)
(5.88711e-12 2.94356e-12 0)
(-3.46721e-12 0 0)
(6.73756e-13 5.39005e-12 -2.69502e-12)
(-6.73756e-13 -2.69502e-12 4.60575e-14)
(3.46721e-12 0 0)
(-5.88711e-12 0 0)
(3.2341e-12 3.2341e-12 0)
(7.4143e-12 0 0)
(0 -1.61705e-12 0)
(-1.44788e-12 0 0)
(2.34388e-12 -5.35745e-12 0)
(-3.18559e-13 0 0)
(-6.68431e-12 0 0)
(6.68431e-12 4.97437e-12 2.48718e-12)
(3.18559e-13 0 0)
(-2.34388e-12 0 0)
(-7.23939e-13 0 0)
(-3.2341e-12 -1.61705e-12 0)
(0 0 0)
(-3.3484e-12 0 0)
(3.13008e-13 5.00812e-12 0)
(2.69706e-12 0 0)
(7.33344e-13 0 0)
(-7.33344e-13 0 2.3467e-12)
(-2.69706e-12 0 0)
(2.19105e-12 5.00812e-12 0)
(6.69681e-13 0 0)
(-2.94356e-12 0 0)
(-2.77377e-12 -2.08032e-12 0)
(2.07063e-12 0 0)
(-5.99346e-13 0 0)
(-3.31216e-12 -4.60822e-12 0)
(7.51999e-12 4.51906e-12 0)
(-7.51999e-12 -4.51906e-12 0)
(3.31216e-12 -4.60822e-12 0)
(5.99346e-13 0 0)
(4.77839e-13 0 0)
(0 -2.42705e-12 0)
(-5.39005e-12 6.73756e-13 2.74108e-12)
(6.32478e-12 4.97437e-12 4.97437e-12)
(-9.26512e-13 -4.6934e-12 2.3467e-12)
(-2.76332e-12 4.51906e-12 -2.25953e-12)
(2.38429e-12 -4.43548e-12 0)
(2.38429e-12 -4.43548e-12 0)
(-2.08984e-12 4.51906e-12 0)
(9.08966e-13 0 0)
(-7.27477e-12 4.97437e-12 -2.48718e-12)
(2.69502e-12 6.73756e-13 0)
(-5.39005e-12 -6.73756e-13 0)
(2.95353e-12 -4.97437e-12 0)
(5.86675e-13 4.6934e-12 0)
(-1.27098e-12 -4.51906e-12 0)
(1.49004e-12 4.43548e-12 0)
(-5.92552e-12 4.43548e-12 0)
(1.27098e-12 -4.51906e-12 0)
(-5.86675e-13 0 0)
(-2.95353e-12 -4.97437e-12 0)
(0 -6.73756e-13 4.60575e-14)
(-5.54753e-12 2.08032e-12 0)
(6.37118e-13 0 0)
(-2.99673e-13 0 0)
(-2.59213e-12 4.60822e-12 0)
(3.81295e-12 4.51906e-12 0)
(-3.81295e-12 0 0)
(2.59213e-12 4.60822e-12 0)
(2.99673e-13 0 0)
(1.91135e-12 0 0)
(2.77377e-12 2.42705e-12 0)
(0 0 0)
(-1.33936e-12 0 0)
(-2.19105e-12 -5.00812e-12 0)
(5.09444e-12 0 0)
(1.61336e-12 -4.6934e-12 2.3467e-12)
(-1.61336e-12 0 2.3467e-12)
(-5.09444e-12 0 0)
(2.19105e-12 -5.00812e-12 0)
(3.3484e-12 0 0)
(0 0 0)
(-3.2341e-12 1.61705e-12 0)
(4.34364e-12 -2.89576e-12 0)
(2.67872e-12 2.67872e-12 0)
(9.55677e-13 0 0)
(-4.89664e-12 -4.97437e-12 4.97437e-12)
(4.89664e-12 0 0)
(-9.55677e-13 0 0)
(0 5.35745e-12 0)
(-4.34364e-12 -2.89576e-12 0)
(0 1.61705e-12 0)
(0 0 0)
(-8.08525e-12 0 0)
(5.88711e-12 0 0)
(-2.08032e-12 2.77377e-12 0)
(6.73756e-13 2.69502e-12 4.60575e-14)
(-6.73756e-13 0 0)
(2.08032e-12 5.54753e-12 0)
(-5.88711e-12 0 0)
(8.08525e-12 3.2341e-12 0)
(0 0 0)
(-5.56072e-12 -7.4143e-12 0)
(3.2341e-12 0 0)
(7.35889e-13 2.94356e-12 0)
(-4.16065e-12 2.77377e-12 0)
(5.72693e-12 -2.69502e-12 2.69502e-12)
(-5.72693e-12 2.69502e-12 4.60575e-14)
(4.16065e-12 2.77377e-12 0)
(-7.35889e-13 0 0)
(-3.2341e-12 6.4682e-12 0)
(5.56072e-12 -7.4143e-12 0)
(3.2341e-12 3.2341e-12 0)
(7.23939e-13 0 0)
(-1.6742e-12 5.35745e-12 0)
(9.55677e-13 0 0)
(-1.39904e-12 0 0)
(1.39904e-12 -4.97437e-12 -2.48718e-12)
(-9.55677e-13 0 0)
(-1.00452e-12 0 0)
(2.17182e-12 0 0)
(-3.2341e-12 3.2341e-12 0)
(0 0 0)
(3.68324e-12 0 0)
(-3.75609e-12 -5.00812e-12 0)
(-1.49837e-12 0 0)
(9.53347e-13 0 0)
(-9.53347e-13 0 0)
(1.49837e-12 0 0)
(1.25203e-12 -5.00812e-12 0)
(-3.68324e-12 0 0)
(-2.94356e-12 0 0)
(0 1.04016e-12 0)
(-2.22991e-12 0 0)
(1.49837e-13 0 0)
(1.58408e-12 0 0)
(-1.42986e-12 0 0)
(1.42986e-12 0 0)
(-1.58408e-12 0 0)
(-1.49837e-13 0 0)
(-3.18559e-13 0 0)
(0 1.04016e-12 0)
(2.69502e-12 0 -2.64897e-12)
(-3.63519e-12 0 0)
(3.86227e-12 0 -2.3467e-12)
(-2.74292e-12 0 2.25953e-12)
(-2.05119e-12 4.43548e-12 0)
(-2.05119e-12 -4.43548e-12 0)
(2.42922e-12 0 0)
(1.02554e-12 0 0)
(2.66835e-12 0 0)
(-2.69502e-12 0 0)
(-2.69502e-12 0 0)
(2.17629e-12 0 0)
(-1.46669e-13 0 0)
(2.96563e-12 0 0)
(-3.03207e-12 4.43548e-12 0)
(-1.40341e-12 0 0)
(1.55343e-12 0 0)
(1.46669e-13 0 0)
(-2.17629e-12 0 0)
(-5.39005e-12 0 4.60575e-14)
(2.77377e-12 -1.04016e-12 0)
(-9.55677e-13 0 0)
(-1.19869e-12 0 0)
(1.44007e-12 0 0)
(-9.17933e-13 0 0)
(9.17933e-13 0 0)
(-1.44007e-12 0 0)
(1.19869e-12 0 0)
(-1.5928e-12 0 0)
(-2.77377e-12 -1.04016e-12 0)
(0 -2.94356e-12 0)
(2.00904e-12 0 0)
(-3.44308e-12 0 0)
(-8.99019e-13 0 0)
(1.32002e-12 -4.6934e-12 -2.3467e-12)
(-1.32002e-12 0 0)
(8.99019e-13 0 0)
(3.44308e-12 5.00812e-12 0)
(-4.68777e-12 0 0)
(2.94356e-12 -2.94356e-12 0)
(0 -3.2341e-12 0)
(7.23939e-13 0 0)
(-6.69681e-13 -2.67872e-12 0)
(-3.18559e-13 0 0)
(-3.10898e-13 4.97437e-12 -4.97437e-12)
(3.10898e-13 4.97437e-12 0)
(3.18559e-13 0 0)
(-2.00904e-12 -5.35745e-12 0)
(-7.23939e-13 2.89576e-12 0)
(-3.2341e-12 -3.2341e-12 0)
(0 5.56072e-12 0)
(0 3.2341e-12 0)
(0 0 0)
(1.04016e-12 0 0)
(0 -5.39005e-12 4.60575e-14)
(0 -2.69502e-12 0)
(-1.04016e-12 -2.77377e-12 0)
(-2.94356e-12 0 0)
(0 0 0)
(-1.85357e-12 7.4143e-12 0)
(-5.56072e-12 -7.4143e-12 0)
(3.2341e-12 0 0)
(7.35889e-13 2.94356e-12 0)
(-4.16065e-12 2.77377e-12 0)
(5.72693e-12 2.69502e-12 -2.69502e-12)
(-5.72693e-12 2.69502e-12 4.60575e-14)
(4.16065e-12 2.77377e-12 0)
(-7.35889e-13 0 0)
(-3.2341e-12 6.4682e-12 0)
(5.56072e-12 -7.4143e-12 0)
(3.2341e-12 3.2341e-12 0)
(7.23939e-13 0 0)
(-1.6742e-12 5.35745e-12 0)
(9.55677e-13 0 0)
(-1.39904e-12 0 0)
(1.39904e-12 -4.97437e-12 2.48718e-12)
(-9.55677e-13 0 0)
(-1.00452e-12 0 0)
(2.17182e-12 0 0)
(-3.2341e-12 3.2341e-12 0)
(0 0 0)
(3.68324e-12 0 0)
(-3.75609e-12 -5.00812e-12 0)
(-1.49837e-12 0 0)
(9.53347e-13 -4.6934e-12 0)
(-9.53347e-13 4.6934e-12 0)
(1.49837e-12 0 0)
(1.25203e-12 -5.00812e-12 0)
(-3.68324e-12 0 0)
(-2.94356e-12 0 0)
(0 1.04016e-12 0)
(-2.22991e-12 0 0)
(1.49837e-13 0 0)
(1.58408e-12 0 0)
(-1.42986e-12 0 0)
(1.42986e-12 -4.51906e-12 0)
(-1.58408e-12 0 0)
(-1.49837e-13 0 0)
(-3.18559e-13 0 0)
(0 1.04016e-12 0)
(2.69502e-12 0 4.60575e-14)
(-3.6071e-12 0 -2.48718e-12)
(2.94024e-12 0 0)
(-2.08984e-12 0 0)
(-2.05119e-12 4.43548e-12 0)
(-2.05119e-12 -4.43548e-12 0)
(2.42922e-12 0 0)
(7.92388e-13 0 0)
(2.67397e-12 0 0)
(-2.69502e-12 0 0)
(2.69502e-12 0 0)
(-2.79808e-12 0 0)
(-1.46669e-13 0 2.3467e-12)
(-1.55343e-12 0 0)
(-3.03207e-12 4.43548e-12 0)
(-1.40341e-12 0 0)
(1.55343e-12 0 0)
(1.46669e-13 0 0)
(-2.17629e-12 0 0)
(-5.39005e-12 0 4.60575e-14)
(2.77377e-12 -1.04016e-12 0)
(-9.55677e-13 0 0)
(-1.19869e-12 0 0)
(1.44007e-12 0 0)
(-9.17933e-13 0 0)
(9.17933e-13 0 0)
(-1.44007e-12 0 0)
(1.19869e-12 0 0)
(-1.5928e-12 0 0)
(-2.77377e-12 -1.04016e-12 0)
(0 -2.94356e-12 0)
(2.00904e-12 0 0)
(-3.44308e-12 0 0)
(-8.99019e-13 0 0)
(1.32002e-12 -4.6934e-12 0)
(-1.32002e-12 0 0)
(8.99019e-13 0 0)
(3.44308e-12 5.00812e-12 0)
(-4.68777e-12 0 0)
(2.94356e-12 -2.94356e-12 0)
(0 -3.2341e-12 0)
(7.23939e-13 0 0)
(-6.69681e-13 -2.67872e-12 0)
(-3.18559e-13 0 0)
(-3.10898e-13 4.97437e-12 0)
(3.10898e-13 4.97437e-12 0)
(3.18559e-13 0 0)
(-2.00904e-12 -5.35745e-12 0)
(-7.23939e-13 2.89576e-12 0)
(-3.2341e-12 -3.2341e-12 0)
(0 5.56072e-12 0)
(0 3.2341e-12 0)
(0 0 0)
(1.04016e-12 0 0)
(0 -5.39005e-12 4.60575e-14)
(0 -2.69502e-12 0)
(-1.04016e-12 -2.77377e-12 0)
(-2.94356e-12 0 0)
(0 0 0)
(-1.85357e-12 7.4143e-12 0)
(-5.56072e-12 -7.4143e-12 0)
(3.2341e-12 0 0)
(7.35889e-13 2.94356e-12 0)
(-4.16065e-12 2.77377e-12 0)
(5.72693e-12 -2.69502e-12 2.69502e-12)
(-5.72693e-12 2.69502e-12 4.60575e-14)
(4.16065e-12 2.77377e-12 0)
(-7.35889e-13 0 0)
(-3.2341e-12 6.4682e-12 0)
(5.56072e-12 -7.4143e-12 0)
(3.2341e-12 3.2341e-12 0)
(7.23939e-13 0 0)
(-1.6742e-12 5.35745e-12 0)
(9.55677e-13 0 0)
(-1.39904e-12 0 0)
(1.39904e-12 -4.97437e-12 -2.48718e-12)
(-9.55677e-13 0 0)
(-1.00452e-12 0 0)
(2.17182e-12 0 0)
(-3.2341e-12 3.2341e-12 0)
(0 0 0)
(3.68324e-12 0 0)
(-3.75609e-12 -5.00812e-12 0)
(-1.49837e-12 0 0)
(9.53347e-13 0 0)
(-9.53347e-13 0 -2.3467e-12)
(1.49837e-12 0 0)
(1.25203e-12 -5.00812e-12 0)
(-3.68324e-12 0 0)
(-2.94356e-12 0 0)
(0 1.04016e-12 0)
(-2.22991e-12 0 0)
(1.49837e-13 0 0)
(1.58408e-12 0 0)
(-1.42986e-12 0 0)
(1.42986e-12 0 0)
(-1.58408e-12 0 0)
(-1.49837e-13 0 0)
(-3.18559e-13 0 0)
(0 1.04016e-12 0)
(2.69502e-12 0 4.60575e-14)
(-3.58464e-12 0 2.48718e-12)
(3.07802e-12 0 0)
(-2.13066e-12 0 0)
(-2.05119e-12 4.43548e-12 0)
(-2.05119e-12 -4.43548e-12 0)
(2.42922e-12 0 0)
(8.8777e-13 0 0)
(2.6852e-12 0 0)
(-2.69502e-12 0 0)
(-2.69502e-12 0 0)
(2.17629e-12 0 0)
(-1.46669e-13 0 -2.3467e-12)
(-1.55343e-12 0 0)
(-3.03207e-12 4.43548e-12 0)
(-1.40341e-12 0 0)
(1.55343e-12 0 0)
(1.46669e-13 0 0)
(-2.17629e-12 0 0)
(-5.39005e-12 0 4.60575e-14)
(2.77377e-12 -1.04016e-12 0)
(-9.55677e-13 0 0)
(-1.19869e-12 0 0)
(1.44007e-12 0 0)
(-9.17933e-13 0 0)
(9.17933e-13 0 0)
(-1.44007e-12 0 0)
(1.19869e-12 0 0)
(-1.5928e-12 0 0)
(-2.77377e-12 -1.04016e-12 0)
(0 -2.94356e-12 0)
(2.00904e-12 0 0)
(-3.44308e-12 0 0)
(-8.99019e-13 0 0)
(1.32002e-12 0 2.3467e-12)
(-1.32002e-12 0 0)
(8.99019e-13 0 0)
(3.44308e-12 5.00812e-12 0)
(-4.68777e-12 0 0)
(2.94356e-12 -2.94356e-12 0)
(0 -3.2341e-12 0)
(7.23939e-13 0 0)
(-6.69681e-13 -2.67872e-12 0)
(-3.18559e-13 0 0)
(-3.10898e-13 0 4.97437e-12)
(3.10898e-13 4.97437e-12 0)
(3.18559e-13 0 0)
(-2.00904e-12 -5.35745e-12 0)
(-7.23939e-13 2.89576e-12 0)
(-3.2341e-12 -3.2341e-12 0)
(0 5.56072e-12 0)
(0 3.2341e-12 0)
(0 0 0)
(1.04016e-12 0 0)
(0 -5.39005e-12 4.60575e-14)
(0 -2.69502e-12 0)
(-1.04016e-12 -2.77377e-12 0)
(-2.94356e-12 0 0)
(0 0 0)
(-1.85357e-12 7.4143e-12 0)
(-1.85357e-12 -3.70715e-12 0)
(1.61705e-12 3.2341e-12 0)
(1.47178e-12 0 0)
(-3.46721e-12 0 0)
(5.05317e-13 2.69502e-12 -2.69502e-12)
(-5.05317e-13 2.69502e-12 4.60575e-14)
(3.81393e-12 0 0)
(-1.47178e-12 0 0)
(-1.61705e-12 -3.2341e-12 0)
(0 -3.70715e-12 0)
(0 3.2341e-12 0)
(-4.34364e-12 0 0)
(0 0 0)
(-1.27424e-12 0 0)
(-2.09856e-12 0 0)
(2.09856e-12 -4.97437e-12 2.48718e-12)
(-3.82271e-12 0 0)
(-2.67872e-12 0 0)
(7.23939e-12 0 0)
(-3.2341e-12 3.2341e-12 0)
(-2.94356e-12 7.35889e-13 0)
(6.69681e-13 -5.35745e-12 0)
(-1.25203e-12 0 0)
(-2.99673e-12 0 0)
(5.20674e-12 -4.6934e-12 0)
(-5.20674e-12 0 2.3467e-12)
(2.99673e-12 0 0)
(1.25203e-12 0 0)
(-3.3484e-12 -5.35745e-12 0)
(2.94356e-12 7.35889e-13 0)
(2.77377e-12 -3.46721e-12 0)
(1.43352e-12 5.09695e-12 0)
(-1.04886e-12 -4.79477e-12 0)
(8.64042e-13 0 0)
(-1.62404e-12 9.03811e-12 0)
(1.62404e-12 0 0)
(-8.64042e-13 0 0)
(1.04886e-12 -4.79477e-12 0)
(-1.43352e-12 5.09695e-12 0)
(-2.77377e-12 -3.46721e-12 0)
(-5.39005e-12 1.17907e-12 2.74108e-12)
(1.38973e-12 0 0)
(-8.3113e-13 0 2.3467e-12)
(1.73532e-12 0 -2.25953e-12)
(-2.05119e-12 -4.43548e-12 0)
(6.81977e-12 -4.43548e-12 0)
(-6.6089e-12 0 0)
(5.68715e-12 0 0)
(-2.63737e-12 0 0)
(0 1.17907e-12 2.69502e-12)
(0 -1.17907e-12 0)
(-1.39904e-12 0 -2.48718e-12)
(-3.66672e-12 0 0)
(3.67173e-12 0 0)
(-2.84148e-12 8.87096e-12 0)
(2.84148e-12 4.43548e-12 0)
(-8.19079e-12 0 0)
(3.66672e-12 0 0)
(1.39904e-12 0 0)
(2.69502e-12 -1.17907e-12 4.60575e-14)
(0 6.93442e-13 0)
(1.91135e-12 -5.09695e-12 0)
(1.19869e-12 4.79477e-12 0)
(-1.72808e-12 0 0)
(-4.94272e-13 -9.03811e-12 0)
(4.94272e-13 -9.03811e-12 0)
(1.72808e-12 0 0)
(-1.19869e-12 4.79477e-12 0)
(6.37118e-13 0 0)
(0 6.93442e-13 0)
(-2.94356e-12 -3.67944e-12 0)
(1.33936e-12 0 0)
(0 0 0)
(-3.59608e-12 0 0)
(1.98003e-12 4.6934e-12 0)
(-1.98003e-12 4.6934e-12 0)
(3.59608e-12 0 0)
(0 0 0)
(-1.33936e-12 5.35745e-12 0)
(2.94356e-12 -3.67944e-12 0)
(6.4682e-12 -3.2341e-12 0)
(1.44788e-12 -2.89576e-12 0)
(-3.3484e-12 -2.67872e-12 0)
(2.54847e-12 0 0)
(6.21796e-13 4.97437e-12 -4.97437e-12)
(-6.21796e-13 0 -2.48718e-12)
(-2.86703e-12 0 0)
(3.3484e-12 -2.67872e-12 0)
(1.44788e-12 0 0)
(0 -3.2341e-12 0)
(-3.70715e-12 1.85357e-12 0)
(3.2341e-12 -3.2341e-12 0)
(7.35889e-13 2.94356e-12 0)
(2.08032e-12 -2.77377e-12 0)
(-4.21098e-12 -2.69502e-12 4.60575e-14)
(4.21098e-12 0 0)
(6.93442e-13 0 0)
(-3.67944e-12 5.88711e-12 0)
(-3.2341e-12 -6.4682e-12 0)
(1.85357e-12 0 0)
(-5.56072e-12 -7.4143e-12 0)
(3.2341e-12 0 0)
(7.35889e-13 2.94356e-12 0)
(-4.16065e-12 2.77377e-12 0)
(5.72693e-12 -2.69502e-12 2.69502e-12)
(-5.72693e-12 2.69502e-12 4.60575e-14)
(4.16065e-12 2.77377e-12 0)
(-7.35889e-13 0 0)
(-3.2341e-12 6.4682e-12 0)
(5.56072e-12 -7.4143e-12 0)
(3.2341e-12 3.2341e-12 0)
(7.23939e-13 0 0)
(-1.6742e-12 5.35745e-12 0)
(9.55677e-13 0 0)
(-1.39904e-12 0 0)
(1.39904e-12 -4.97437e-12 -2.48718e-12)
(-9.55677e-13 0 0)
(-1.00452e-12 0 0)
(2.17182e-12 0 0)
(-3.2341e-12 3.2341e-12 0)
(0 0 0)
(3.68324e-12 0 0)
(-3.75609e-12 -5.00812e-12 0)
(-1.49837e-12 0 0)
(9.53347e-13 0 0)
(-9.53347e-13 0 0)
(1.49837e-12 0 0)
(1.25203e-12 -5.00812e-12 0)
(-3.68324e-12 0 0)
(-2.94356e-12 0 0)
(0 1.04016e-12 0)
(-2.22991e-12 0 0)
(1.49837e-13 0 0)
(1.58408e-12 0 0)
(-1.42986e-12 0 0)
(1.42986e-12 0 0)
(-1.58408e-12 0 0)
(-1.49837e-13 0 0)
(-3.18559e-13 0 0)
(0 1.04016e-12 0)
(2.69502e-12 0 -2.64897e-12)
(-3.62957e-12 0 -4.97437e-12)
(3.62911e-12 0 -2.3467e-12)
(-2.74292e-12 0 2.25953e-12)
(-2.05119e-12 4.43548e-12 0)
(-2.05119e-12 -4.43548e-12 0)
(2.42922e-12 0 0)
(7.8179e-13 0 0)
(2.32576e-12 0 2.48718e-12)
(-2.69502e-12 0 -2.69502e-12)
(-2.69502e-12 0 0)
(2.17629e-12 0 2.48718e-12)
(-1.46669e-13 0 0)
(2.96563e-12 0 0)
(-3.03207e-12 4.43548e-12 0)
(-1.40341e-12 0 0)
(1.55343e-12 0 0)
(-4.54673e-12 0 0)
(7.77245e-12 0 0)
(-5.39005e-12 0 4.60575e-14)
(2.77377e-12 -1.04016e-12 0)
(-9.55677e-13 0 0)
(-1.19869e-12 0 0)
(1.44007e-12 0 0)
(-9.17933e-13 0 0)
(9.17933e-13 0 0)
(-1.44007e-12 0 0)
(1.19869e-12 0 0)
(-1.5928e-12 0 0)
(-2.77377e-12 -1.04016e-12 0)
(0 -2.94356e-12 0)
(2.00904e-12 0 0)
(-3.44308e-12 0 0)
(-8.99019e-13 0 0)
(1.32002e-12 -4.6934e-12 -2.3467e-12)
(-1.32002e-12 0 -2.3467e-12)
(8.99019e-13 0 0)
(3.44308e-12 5.00812e-12 0)
(-4.68777e-12 0 0)
(2.94356e-12 -2.94356e-12 0)
(0 -3.2341e-12 0)
(7.23939e-13 0 0)
(-6.69681e-13 -2.67872e-12 0)
(-3.18559e-13 0 0)
(-3.10898e-13 9.94874e-12 0)
(3.10898e-13 0 2.48718e-12)
(3.18559e-13 0 0)
(-2.00904e-12 -5.35745e-12 0)
(-7.23939e-13 2.89576e-12 0)
(-3.2341e-12 -3.2341e-12 0)
(0 5.56072e-12 0)
(0 3.2341e-12 0)
(0 0 0)
(1.04016e-12 0 0)
(0 -5.39005e-12 4.60575e-14)
(0 -2.69502e-12 0)
(-1.04016e-12 -2.77377e-12 0)
(-2.94356e-12 0 0)
(0 0 0)
(-1.85357e-12 7.4143e-12 0)
(-5.56072e-12 -7.4143e-12 0)
(3.2341e-12 0 0)
(7.35889e-13 2.94356e-12 0)
(-4.16065e-12 2.77377e-12 0)
(5.72693e-12 2.69502e-12 -2.69502e-12)
(-5.72693e-12 2.69502e-12 4.60575e-14)
(4.16065e-12 2.77377e-12 0)
(-7.35889e-13 0 0)
(-3.2341e-12 6.4682e-12 0)
(5.56072e-12 -7.4143e-12 0)
(3.2341e-12 3.2341e-12 0)
(7.23939e-13 0 0)
(-1.6742e-12 5.35745e-12 0)
(9.55677e-13 0 0)
(-1.39904e-12 0 0)
(1.39904e-12 -4.97437e-12 2.48718e-12)
(-9.55677e-13 0 0)
(-1.00452e-12 0 0)
(2.17182e-12 0 0)
(-3.2341e-12 3.2341e-12 0)
(0 0 0)
(3.68324e-12 0 0)
(-3.75609e-12 -5.00812e-12 0)
(-1.49837e-12 0 0)
(9.53347e-13 -4.6934e-12 0)
(-9.53347e-13 4.6934e-12 0)
(1.49837e-12 0 0)
(1.25203e-12 -5.00812e-12 0)
(-3.68324e-12 0 0)
(-2.94356e-12 0 0)
(0 1.04016e-12 0)
(-2.22991e-12 0 0)
(1.49837e-13 0 0)
(1.58408e-12 0 0)
(-1.42986e-12 0 0)
(1.42986e-12 -4.51906e-12 0)
(-1.58408e-12 0 0)
(-1.49837e-13 0 0)
(-3.18559e-13 0 0)
(0 1.04016e-12 0)
(2.69502e-12 0 2.74108e-12)
(-3.6408e-12 0 4.97437e-12)
(-9.3711e-13 0 2.3467e-12)
(1.77614e-12 0 -2.25953e-12)
(-2.05119e-12 4.43548e-12 0)
(-2.05119e-12 -4.43548e-12 0)
(2.42922e-12 0 0)
(8.8777e-13 0 0)
(2.337e-12 0 -2.48718e-12)
(-2.69502e-12 0 0)
(2.69502e-12 0 0)
(-2.79808e-12 0 0)
(-1.46669e-13 0 0)
(2.96563e-12 0 0)
(-3.03207e-12 4.43548e-12 0)
(-1.40341e-12 0 0)
(1.55343e-12 0 0)
(-4.54673e-12 0 0)
(7.77245e-12 0 0)
(-5.39005e-12 0 4.60575e-14)
(2.77377e-12 -1.04016e-12 0)
(-9.55677e-13 0 0)
(-1.19869e-12 0 0)
(1.44007e-12 0 0)
(-9.17933e-13 0 0)
(9.17933e-13 0 0)
(-1.44007e-12 0 0)
(1.19869e-12 0 0)
(-1.5928e-12 0 0)
(-2.77377e-12 -1.04016e-12 0)
(0 -2.94356e-12 0)
(2.00904e-12 0 0)
(-3.44308e-12 0 0)
(-8.99019e-13 0 0)
(1.32002e-12 0 2.3467e-12)
(-1.32002e-12 0 2.3467e-12)
(8.99019e-13 0 0)
(3.44308e-12 5.00812e-12 0)
(-4.68777e-12 0 0)
(2.94356e-12 -2.94356e-12 0)
(0 -3.2341e-12 0)
(7.23939e-13 0 0)
(-6.69681e-13 -2.67872e-12 0)
(-3.18559e-13 0 0)
(-3.10898e-13 4.97437e-12 0)
(3.10898e-13 0 -2.48718e-12)
(3.18559e-13 0 0)
(-2.00904e-12 -5.35745e-12 0)
(-7.23939e-13 2.89576e-12 0)
(-3.2341e-12 -3.2341e-12 0)
(0 5.56072e-12 0)
(0 3.2341e-12 0)
(0 0 0)
(1.04016e-12 0 0)
(0 -5.39005e-12 4.60575e-14)
(0 -2.69502e-12 0)
(-1.04016e-12 -2.77377e-12 0)
(-2.94356e-12 0 0)
(0 0 0)
(-1.85357e-12 7.4143e-12 0)
(-5.56072e-12 -7.4143e-12 0)
(3.2341e-12 0 0)
(7.35889e-13 2.94356e-12 0)
(-4.16065e-12 2.77377e-12 0)
(5.72693e-12 -2.69502e-12 2.69502e-12)
(-5.72693e-12 2.69502e-12 4.60575e-14)
(4.16065e-12 2.77377e-12 0)
(-7.35889e-13 0 0)
(-3.2341e-12 6.4682e-12 0)
(5.56072e-12 -7.4143e-12 0)
(3.2341e-12 3.2341e-12 0)
(7.23939e-13 0 0)
(-1.6742e-12 5.35745e-12 0)
(9.55677e-13 0 0)
(-1.39904e-12 0 0)
(1.39904e-12 -4.97437e-12 -2.48718e-12)
(-9.55677e-13 0 0)
(-1.00452e-12 0 0)
(2.17182e-12 0 0)
(-3.2341e-12 3.2341e-12 0)
(0 0 0)
(3.68324e-12 0 0)
(-3.75609e-12 -5.00812e-12 0)
(-1.49837e-12 0 0)
(9.53347e-13 0 0)
(-9.53347e-13 0 0)
(1.49837e-12 0 0)
(1.25203e-12 -5.00812e-12 0)
(-3.68324e-12 0 0)
(-2.94356e-12 0 0)
(0 1.04016e-12 0)
(-2.22991e-12 0 0)
(1.49837e-13 0 0)
(1.58408e-12 0 0)
(-1.42986e-12 0 0)
(1.42986e-12 0 0)
(-1.58408e-12 0 0)
(-1.49837e-13 0 0)
(-3.18559e-13 0 0)
(0 1.04016e-12 0)
(2.69502e-12 0 -2.64897e-12)
(-3.61834e-12 0 0)
(3.84107e-12 0 -2.3467e-12)
(-2.74292e-12 0 2.25953e-12)
(-2.05119e-12 4.43548e-12 0)
(-2.05119e-12 -4.43548e-12 0)
(2.42922e-12 0 0)
(9.9375e-13 0 0)
(2.337e-12 0 0)
(-2.69502e-12 0 0)
(-2.69502e-12 0 0)
(2.17629e-12 0 0)
(-1.46669e-13 0 0)
(2.96563e-12 0 0)
(-3.03207e-12 4.43548e-12 0)
(-1.40341e-12 0 0)
(1.55343e-12 0 0)
(1.46669e-13 0 0)
(2.79808e-12 0 0)
(-5.39005e-12 0 4.60575e-14)
(2.77377e-12 -1.04016e-12 0)
(-9.55677e-13 0 0)
(-1.19869e-12 0 0)
(1.44007e-12 0 0)
(-9.17933e-13 0 0)
(9.17933e-13 0 0)
(-1.44007e-12 0 0)
(1.19869e-12 0 0)
(-1.5928e-12 0 0)
(-2.77377e-12 -1.04016e-12 0)
(0 -2.94356e-12 0)
(2.00904e-12 0 0)
(-3.44308e-12 0 0)
(-8.99019e-13 0 0)
(1.32002e-12 -4.6934e-12 -2.3467e-12)
(-1.32002e-12 0 0)
(8.99019e-13 0 0)
(3.44308e-12 5.00812e-12 0)
(-4.68777e-12 0 0)
(2.94356e-12 -2.94356e-12 0)
(0 -3.2341e-12 0)
(7.23939e-13 0 0)
(-6.69681e-13 -2.67872e-12 0)
(-3.18559e-13 0 0)
(-3.10898e-13 9.94874e-12 0)
(3.10898e-13 0 2.48718e-12)
(3.18559e-13 0 0)
(-2.00904e-12 -5.35745e-12 0)
(-7.23939e-13 2.89576e-12 0)
(-3.2341e-12 -3.2341e-12 0)
(0 5.56072e-12 0)
(0 3.2341e-12 0)
(0 0 0)
(1.04016e-12 0 0)
(0 -5.39005e-12 4.60575e-14)
(0 -2.69502e-12 0)
(-1.04016e-12 -2.77377e-12 0)
(-2.94356e-12 0 0)
(0 0 0)
(-1.85357e-12 7.4143e-12 0)
(-5.56072e-12 -7.4143e-12 0)
(3.2341e-12 0 0)
(7.35889e-13 2.94356e-12 0)
(-4.16065e-12 2.77377e-12 0)
(5.72693e-12 2.69502e-12 0)
(-5.72693e-12 2.69502e-12 4.60575e-14)
(4.16065e-12 2.77377e-12 0)
(-7.35889e-13 0 0)
(-3.2341e-12 6.4682e-12 0)
(5.56072e-12 -7.4143e-12 0)
(3.2341e-12 3.2341e-12 0)
(7.23939e-13 0 0)
(-1.6742e-12 5.35745e-12 0)
(9.55677e-13 0 0)
(-1.39904e-12 0 -2.48718e-12)
(1.39904e-12 -4.97437e-12 0)
(-9.55677e-13 0 0)
(-1.00452e-12 0 0)
(2.17182e-12 0 0)
(-3.2341e-12 3.2341e-12 0)
(0 0 0)
(3.68324e-12 0 0)
(-3.75609e-12 -5.00812e-12 0)
(-1.49837e-12 0 0)
(9.53347e-13 -4.6934e-12 0)
(-9.53347e-13 4.6934e-12 2.3467e-12)
(1.49837e-12 0 0)
(1.25203e-12 -5.00812e-12 0)
(-3.68324e-12 0 0)
(-2.94356e-12 0 0)
(0 1.04016e-12 0)
(-2.22991e-12 0 0)
(1.49837e-13 0 0)
(1.58408e-12 0 0)
(-1.42986e-12 -4.51906e-12 0)
(1.42986e-12 0 0)
(-1.58408e-12 0 0)
(-1.49837e-13 0 0)
(-3.18559e-13 0 0)
(0 1.04016e-12 0)
(5.39005e-12 0 4.60575e-14)